
    -----------------------------------------------------------------------
          Psi4: An Open-Source Ab Initio Electronic Structure Package
                               Psi4 1.4 release

                         Git: Rev {HEAD} 9485035 


    D. G. A. Smith, L. A. Burns, A. C. Simmonett, R. M. Parrish,
    M. C. Schieber, R. Galvelis, P. Kraus, H. Kruse, R. Di Remigio,
    A. Alenaizan, A. M. James, S. Lehtola, J. P. Misiewicz, M. Scheurer,
    R. A. Shaw, J. B. Schriber, Y. Xie, Z. L. Glick, D. A. Sirianni,
    J. S. O'Brien, J. M. Waldrop, A. Kumar, E. G. Hohenstein,
    B. P. Pritchard, B. R. Brooks, H. F. Schaefer III, A. Yu. Sokolov,
    K. Patkowski, A. E. DePrince III, U. Bozkaya, R. A. King,
    F. A. Evangelista, J. M. Turney, T. D. Crawford, C. D. Sherrill,
    J. Chem. Phys. 152(18) 184108 (2020). https://doi.org/10.1063/5.0006002

                            Additional Code Authors
    E. T. Seidl, C. L. Janssen, E. F. Valeev, M. L. Leininger,
    J. F. Gonthier, R. M. Richard, H. R. McAlexander, M. Saitow, X. Wang,
    P. Verma, and M. H. Lechner

             Previous Authors, Complete List of Code Contributors,
                       and Citations for Specific Modules
    https://github.com/psi4/psi4/blob/master/codemeta.json
    https://github.com/psi4/psi4/graphs/contributors
    http://psicode.org/psi4manual/master/introduction.html#citing-psifour

    -----------------------------------------------------------------------


    Psi4 started on: Friday, 20 August 2021 06:34PM

    Process ID: 808154
    Host:       cortex
    PSIDATADIR: /home/origin/miniconda3/envs/bio/share/psi4
    Memory:     500.0 MiB
    Threads:    1
    
  ==> Input File <==

--------------------------------------------------------------------------
molecule ch3br {
5
6323
Br        -0.96740        0.00000        0.00000
C          0.96740        0.00000        0.00000
H          1.30600       -1.03390        0.08050
H          1.30600        0.44720       -0.93570
H          1.30600        0.58680        0.85520
}

scf_e, scf_wfn = energy("B3LYP/cc-pVDZ", return_wfn=True)

HOMO = scf_wfn.epsilon_a_subset("AO", "ALL").np[scf_wfn.nalpha()]
LUMO = scf_wfn.epsilon_a_subset("AO", "ALL").np[scf_wfn.nalpha() + 1]

print(scf_wfn.nalpha())

set cubeprop_tasks ["orbitals"]
set cubeprop_orbitals [22, 23, -22, -23]

cubeprop(scf_wfn)
--------------------------------------------------------------------------

Scratch directory: /tmp/

Scratch directory: /tmp/

*** tstart() called on cortex
*** at Fri Aug 20 18:34:07 2021

   => Loading Basis Set <=

    Name: CC-PVDZ
    Role: ORBITAL
    Keyword: BASIS
    atoms 1   entry BR         line  3202 file /home/origin/miniconda3/envs/bio/share/psi4/basis/cc-pvdz.gbs 
    atoms 2   entry C          line   138 file /home/origin/miniconda3/envs/bio/share/psi4/basis/cc-pvdz.gbs 
    atoms 3-5 entry H          line    22 file /home/origin/miniconda3/envs/bio/share/psi4/basis/cc-pvdz.gbs 


         ---------------------------------------------------------
                                   SCF
               by Justin Turney, Rob Parrish, Andy Simmonett
                          and Daniel G. A. Smith
                              RKS Reference
                        1 Threads,    500 MiB Core
         ---------------------------------------------------------

  ==> Geometry <==

    Molecular point group: c1
    Full point group: C1

    Geometry (in Angstrom), charge = 0, multiplicity = 1:

       Center              X                  Y                   Z               Mass       
    ------------   -----------------  -----------------  -----------------  -----------------
         BR          -0.320317092262    -0.000001072818     0.000000000000    78.918337600000
         C            1.614482907738    -0.000001072818     0.000000000000    12.000000000000
         H            1.953082907738    -1.033901072818     0.080500000000     1.007825032230
         H            1.953082907738     0.447198927182    -0.935700000000     1.007825032230
         H            1.953082907738     0.586798927182     0.855200000000     1.007825032230

  Running in c1 symmetry.

  Rotational constants: A =      5.18393  B =      0.32088  C =      0.32088 [cm^-1]
  Rotational constants: A = 155410.29535  B =   9619.88109  C =   9619.81953 [MHz]
  Nuclear repulsion =   89.287094915806009

  Charge       = 0
  Multiplicity = 1
  Electrons    = 44
  Nalpha       = 22
  Nbeta        = 22

  ==> Algorithm <==

  SCF Algorithm Type is DF.
  DIIS enabled.
  MOM disabled.
  Fractional occupation disabled.
  Guess Type is SAD.
  Energy threshold   = 1.00e-06
  Density threshold  = 1.00e-06
  Integral threshold = 1.00e-12

  ==> Primary Basis <==

  Basis Set: CC-PVDZ
    Blend: CC-PVDZ
    Number of shells: 26
    Number of basis functions: 56
    Number of Cartesian functions: 59
    Spherical Harmonics?: true
    Max angular momentum: 2

  ==> DFT Potential <==

   => LibXC <=

    Version 5.1.5
    S. Lehtola, C. Steigemann, M. J. Oliveira, and M. A. Marques, SoftwareX 7, 1 (2018) (10.1016/j.softx.2017.11.002)

   => Composite Functional: B3LYP <= 

    B3LYP Hyb-GGA Exchange-Correlation Functional

    P. J. Stephens, F. J. Devlin, C. F. Chabalowski, and M. J. Frisch, J. Phys. Chem. 98, 11623 (1994) (10.1021/j100096a001)

    Deriv               =              1
    GGA                 =           TRUE
    Meta                =          FALSE

    Exchange Hybrid     =           TRUE
    MP2 Hybrid          =          FALSE

   => Exchange Functionals <=

    0.0800   Slater exchange
    0.7200         Becke 88

   => Exact (HF) Exchange <=

    0.2000               HF 

   => Correlation Functionals <=

    0.1900   Vosko, Wilk & Nusair (VWN5_RPA)
    0.8100   Lee, Yang & Parr

   => LibXC Density Thresholds  <==

    XC_HYB_GGA_XC_B3LYP:  1.00E-15 

   => Molecular Quadrature <=

    Radial Scheme          =       TREUTLER
    Pruning Scheme         =           NONE
    Nuclear Scheme         =       TREUTLER

    BS radius alpha        =              1
    Pruning alpha          =              1
    Radial Points          =             75
    Spherical Points       =            302
    Total Points           =         107086
    Total Blocks           =            868
    Max Points             =            256
    Max Functions          =             56
    Weights Tolerance      =       1.00E-15

   => Loading Basis Set <=

    Name: (CC-PVDZ AUX)
    Role: JKFIT
    Keyword: DF_BASIS_SCF
    atoms 1   entry BR         line  1219 file /home/origin/miniconda3/envs/bio/share/psi4/basis/cc-pvdz-jkfit.gbs 
    atoms 2   entry C          line   121 file /home/origin/miniconda3/envs/bio/share/psi4/basis/cc-pvdz-jkfit.gbs 
    atoms 3-5 entry H          line    51 file /home/origin/miniconda3/envs/bio/share/psi4/basis/cc-pvdz-jkfit.gbs 

  ==> Integral Setup <==

  DFHelper Memory: AOs need 0.008 GiB; user supplied 0.198 GiB. Using in-core AOs.

  ==> MemDFJK: Density-Fitted J/K Matrices <==

    J tasked:                   Yes
    K tasked:                   Yes
    wK tasked:                   No
    OpenMP threads:               1
    Memory [MiB]:               202
    Algorithm:                 Core
    Schwarz Cutoff:           1E-12
    Mask sparsity (%):       0.0000
    Fitting Condition:        1E-10

   => Auxiliary Basis Set <=

  Basis Set: (CC-PVDZ AUX)
    Blend: CC-PVDZ-JKFIT
    Number of shells: 98
    Number of basis functions: 310
    Number of Cartesian functions: 365
    Spherical Harmonics?: true
    Max angular momentum: 3

  Cached 100.0% of DFT collocation blocks in 0.168 [GiB].

  Minimum eigenvalue in the overlap matrix is 1.6688547922E-02.
  Reciprocal condition number of the overlap matrix is 3.6182601358E-03.
    Using symmetric orthogonalization.

  ==> Pre-Iterations <==

  SCF Guess: Superposition of Atomic Densities via on-the-fly atomic UHF (no occupation information).

   -------------------------
    Irrep   Nso     Nmo    
   -------------------------
     A         56      56 
   -------------------------
    Total      56      56
   -------------------------

  ==> Iterations <==

                           Total Energy        Delta E     RMS |[F,P]|

   @DF-RKS iter SAD: -2612.25256509109113   -2.61225e+03   0.00000e+00 
   @DF-RKS iter   1: -2613.72876461266287   -1.47620e+00   1.23966e-02 DIIS
   @DF-RKS iter   2: -2613.75317729529888   -2.44127e-02   1.04993e-02 DIIS
   @DF-RKS iter   3: -2613.92039856692963   -1.67221e-01   2.67136e-03 DIIS
   @DF-RKS iter   4: -2613.93216955034404   -1.17710e-02   3.62189e-04 DIIS
   @DF-RKS iter   5: -2613.93241718456329   -2.47634e-04   7.96965e-05 DIIS
   @DF-RKS iter   6: -2613.93242877630701   -1.15917e-05   1.25821e-05 DIIS
   @DF-RKS iter   7: -2613.93242907800186   -3.01695e-07   2.16066e-06 DIIS
   @DF-RKS iter   8: -2613.93242908829143   -1.02896e-08   2.40820e-07 DIIS
  Energy and wave function converged.


  ==> Post-Iterations <==

   Electrons on quadrature grid:
      Ntotal   =   43.9999996883 ; deviation = -3.117e-07 

    Orbital Energies [Eh]
    ---------------------

    Doubly Occupied:                                                      

       1A   -482.871991     2A    -62.523606     3A    -56.340729  
       4A    -56.337153     5A    -56.337153     6A    -10.239613  
       7A     -8.701118     8A     -6.531592     9A     -6.518235  
      10A     -6.518235    11A     -2.615035    12A     -2.611026  
      13A     -2.611026    14A     -2.600475    15A     -2.600472  
      16A     -0.807259    17A     -0.670140    18A     -0.444425  
      19A     -0.444412    20A     -0.386867    21A     -0.274448  
      22A     -0.274446  

    Virtual:                                                              

      23A      0.002585    24A      0.074252    25A      0.115862  
      26A      0.115877    27A      0.384480    28A      0.384496  
      29A      0.392238    30A      0.473964    31A      0.531478  
      32A      0.531480    33A      0.553389    34A      0.566271  
      35A      0.566274    36A      0.628934    37A      0.628957  
      38A      0.644237    39A      0.644242    40A      0.665315  
      41A      0.916397    42A      1.052332    43A      1.052347  
      44A      1.169075    45A      1.379808    46A      1.580098  
      47A      1.580178    48A      1.601859    49A      1.699301  
      50A      1.699334    51A      1.870021    52A      2.111216  
      53A      2.111287    54A      2.396957    55A      2.408274  
      56A      2.408416  

    Final Occupation by Irrep:
              A 
    DOCC [    22 ]

  @DF-RKS Final Energy: -2613.93242908829143

   => Energetics <=

    Nuclear Repulsion Energy =             89.2870949158060085
    One-Electron Energy =               -3812.6256184938110891
    Two-Electron Energy =                1188.1102162560434863
    DFT Exchange-Correlation Energy =     -78.7041217663300898
    Empirical Dispersion Energy =           0.0000000000000000
    VV10 Nonlocal Energy =                  0.0000000000000000
    Total Energy =                      -2613.9324290882914283

Computation Completed


Properties will be evaluated at   0.000000,   0.000000,   0.000000 [a0]

Properties computed using the SCF density matrix

  Nuclear Dipole Moment: [e a0]
     X:     8.1921      Y:     0.0001      Z:     0.0000

  Electronic Dipole Moment: [e a0]
     X:    -7.4872      Y:    -0.0001      Z:    -0.0000

  Dipole Moment: [e a0]
     X:     0.7048      Y:    -0.0000      Z:    -0.0000     Total:     0.7048

  Dipole Moment: [D]
     X:     1.7915      Y:    -0.0000      Z:    -0.0000     Total:     1.7915


*** tstop() called on cortex at Fri Aug 20 18:34:10 2021
Module time:
	user time   =       3.40 seconds =       0.06 minutes
	system time =       0.20 seconds =       0.00 minutes
	total time  =          3 seconds =       0.05 minutes
Total time:
	user time   =       3.40 seconds =       0.06 minutes
	system time =       0.20 seconds =       0.00 minutes
	total time  =          3 seconds =       0.05 minutes
  ==> One Electron Grid Properties (v2.0) <==

  ==> CubicScalarGrid <==

    Filepath     = .
    Total Points =           208278
    XYZ Blocking =               10
    X Points     =               63
    Y Points     =               57
    Z Points     =               58
    X Spacing    =        2.000E-01
    Y Spacing    =        2.000E-01
    Z Spacing    =        2.000E-01
    X Minimum    =       -4.657E+00
    Y Minimum    =       -6.022E+00
    Z Minimum    =       -5.776E+00
    X Maximum    =        7.743E+00
    Y Maximum    =        5.178E+00
    Z Maximum    =        5.624E+00

  Basis Set: CC-PVDZ
    Blend: CC-PVDZ
    Number of shells: 26
    Number of basis functions: 56
    Number of Cartesian functions: 59
    Spherical Harmonics?: true
    Max angular momentum: 2


    Psi4 stopped on: Friday, 20 August 2021 06:34PM
    Psi4 wall time for execution: 0:00:04.18

*** Psi4 exiting successfully. Buy a developer a beer!
