
    -----------------------------------------------------------------------
          Psi4: An Open-Source Ab Initio Electronic Structure Package
                               Psi4 1.4 release

                         Git: Rev {HEAD} 9485035 


    D. G. A. Smith, L. A. Burns, A. C. Simmonett, R. M. Parrish,
    M. C. Schieber, R. Galvelis, P. Kraus, H. Kruse, R. Di Remigio,
    A. Alenaizan, A. M. James, S. Lehtola, J. P. Misiewicz, M. Scheurer,
    R. A. Shaw, J. B. Schriber, Y. Xie, Z. L. Glick, D. A. Sirianni,
    J. S. O'Brien, J. M. Waldrop, A. Kumar, E. G. Hohenstein,
    B. P. Pritchard, B. R. Brooks, H. F. Schaefer III, A. Yu. Sokolov,
    K. Patkowski, A. E. DePrince III, U. Bozkaya, R. A. King,
    F. A. Evangelista, J. M. Turney, T. D. Crawford, C. D. Sherrill,
    J. Chem. Phys. 152(18) 184108 (2020). https://doi.org/10.1063/5.0006002

                            Additional Code Authors
    E. T. Seidl, C. L. Janssen, E. F. Valeev, M. L. Leininger,
    J. F. Gonthier, R. M. Richard, H. R. McAlexander, M. Saitow, X. Wang,
    P. Verma, and M. H. Lechner

             Previous Authors, Complete List of Code Contributors,
                       and Citations for Specific Modules
    https://github.com/psi4/psi4/blob/master/codemeta.json
    https://github.com/psi4/psi4/graphs/contributors
    http://psicode.org/psi4manual/master/introduction.html#citing-psifour

    -----------------------------------------------------------------------


    Psi4 started on: Friday, 20 August 2021 09:57PM

    Process ID: 816042
    Host:       cortex
    PSIDATADIR: /home/origin/miniconda3/envs/bio/share/psi4
    Memory:     500.0 MiB
    Threads:    1
    
  ==> Input File <==

--------------------------------------------------------------------------
molecule oh {
  pubchem:hydroxide
}

scf_e, scf_wfn = energy("B3LYP/cc-pVDZ", return_wfn=True)

HOMO = scf_wfn.epsilon_a_subset("AO", "ALL").np[scf_wfn.nalpha()]
LUMO = scf_wfn.epsilon_a_subset("AO", "ALL").np[scf_wfn.nalpha() + 1]

print(scf_wfn.nalpha())

na = scf_wfn.nalpha()

set cubeprop_tasks ["orbitals"]
set cubeprop_orbitals [5, 6, -5, -6]

cubeprop(scf_wfn)

--------------------------------------------------------------------------

Scratch directory: /tmp/

Scratch directory: /tmp/

*** tstart() called on cortex
*** at Fri Aug 20 21:57:43 2021

   => Loading Basis Set <=

    Name: CC-PVDZ
    Role: ORBITAL
    Keyword: BASIS
    atoms 1 entry O          line   198 file /home/origin/miniconda3/envs/bio/share/psi4/basis/cc-pvdz.gbs 
    atoms 2 entry H          line    22 file /home/origin/miniconda3/envs/bio/share/psi4/basis/cc-pvdz.gbs 


         ---------------------------------------------------------
                                   SCF
               by Justin Turney, Rob Parrish, Andy Simmonett
                          and Daniel G. A. Smith
                              RKS Reference
                        1 Threads,    500 MiB Core
         ---------------------------------------------------------

  ==> Geometry <==

    Molecular point group: c2v
    Full point group: C_inf_v

    Geometry (in Angstrom), charge = -1, multiplicity = 1:

       Center              X                  Y                   Z               Mass       
    ------------   -----------------  -----------------  -----------------  -----------------
         O           -0.000000000000     0.000000000000     0.057482520456    15.994914619570
         H            0.000000000000    -0.000000000000    -0.912289313534     1.007825032230

  Running in c2v symmetry.

  Rotational constants: A = ************  B =     18.90642  C =     18.90642 [cm^-1]
  Rotational constants: A = ************  B = 566800.08184  C = 566800.08184 [MHz]
  Nuclear repulsion =    4.365374964483030

  Charge       = -1
  Multiplicity = 1
  Electrons    = 10
  Nalpha       = 5
  Nbeta        = 5

  ==> Algorithm <==

  SCF Algorithm Type is DF.
  DIIS enabled.
  MOM disabled.
  Fractional occupation disabled.
  Guess Type is SAD.
  Energy threshold   = 1.00e-06
  Density threshold  = 1.00e-06
  Integral threshold = 1.00e-12

  ==> Primary Basis <==

  Basis Set: CC-PVDZ
    Blend: CC-PVDZ
    Number of shells: 9
    Number of basis functions: 19
    Number of Cartesian functions: 20
    Spherical Harmonics?: true
    Max angular momentum: 2

  ==> DFT Potential <==

   => LibXC <=

    Version 5.1.5
    S. Lehtola, C. Steigemann, M. J. Oliveira, and M. A. Marques, SoftwareX 7, 1 (2018) (10.1016/j.softx.2017.11.002)

   => Composite Functional: B3LYP <= 

    B3LYP Hyb-GGA Exchange-Correlation Functional

    P. J. Stephens, F. J. Devlin, C. F. Chabalowski, and M. J. Frisch, J. Phys. Chem. 98, 11623 (1994) (10.1021/j100096a001)

    Deriv               =              1
    GGA                 =           TRUE
    Meta                =          FALSE

    Exchange Hybrid     =           TRUE
    MP2 Hybrid          =          FALSE

   => Exchange Functionals <=

    0.0800   Slater exchange
    0.7200         Becke 88

   => Exact (HF) Exchange <=

    0.2000               HF 

   => Correlation Functionals <=

    0.1900   Vosko, Wilk & Nusair (VWN5_RPA)
    0.8100   Lee, Yang & Parr

   => LibXC Density Thresholds  <==

    XC_HYB_GGA_XC_B3LYP:  1.00E-15 

   => Molecular Quadrature <=

    Radial Scheme          =       TREUTLER
    Pruning Scheme         =           NONE
    Nuclear Scheme         =       TREUTLER

    BS radius alpha        =              1
    Pruning alpha          =              1
    Radial Points          =             75
    Spherical Points       =            302
    Total Points           =          44034
    Total Blocks           =            393
    Max Points             =            255
    Max Functions          =             19
    Weights Tolerance      =       1.00E-15

   => Loading Basis Set <=

    Name: (CC-PVDZ AUX)
    Role: JKFIT
    Keyword: DF_BASIS_SCF
    atoms 1 entry O          line   221 file /home/origin/miniconda3/envs/bio/share/psi4/basis/cc-pvdz-jkfit.gbs 
    atoms 2 entry H          line    51 file /home/origin/miniconda3/envs/bio/share/psi4/basis/cc-pvdz-jkfit.gbs 

  ==> Integral Setup <==

  DFHelper Memory: AOs need 0.000 GiB; user supplied 0.342 GiB. Using in-core AOs.

  ==> MemDFJK: Density-Fitted J/K Matrices <==

    J tasked:                   Yes
    K tasked:                   Yes
    wK tasked:                   No
    OpenMP threads:               1
    Memory [MiB]:               350
    Algorithm:                 Core
    Schwarz Cutoff:           1E-12
    Mask sparsity (%):       0.0000
    Fitting Condition:        1E-10

   => Auxiliary Basis Set <=

  Basis Set: (CC-PVDZ AUX)
    Blend: CC-PVDZ-JKFIT
    Number of shells: 33
    Number of basis functions: 93
    Number of Cartesian functions: 106
    Spherical Harmonics?: true
    Max angular momentum: 3

  Cached 100.0% of DFT collocation blocks in 0.024 [GiB].

  Minimum eigenvalue in the overlap matrix is 5.0813410581E-02.
  Reciprocal condition number of the overlap matrix is 1.7330359336E-02.
    Using symmetric orthogonalization.

  ==> Pre-Iterations <==

  SCF Guess: Superposition of Atomic Densities via on-the-fly atomic UHF (no occupation information).

   -------------------------
    Irrep   Nso     Nmo    
   -------------------------
     A1        10      10 
     A2         1       1 
     B1         4       4 
     B2         4       4 
   -------------------------
    Total      19      19
   -------------------------

  ==> Iterations <==

                           Total Energy        Delta E     RMS |[F,P]|

   @DF-RKS iter SAD:   -75.34168901814360   -7.53417e+01   0.00000e+00 
   @DF-RKS iter   1:   -75.43594219514671   -9.42532e-02   7.52268e-02 DIIS
   @DF-RKS iter   2:   -75.15990779565259    2.76034e-01   1.02254e-01 DIIS
   @DF-RKS iter   3:   -75.72070352056872   -5.60796e-01   2.15527e-03 DIIS
   @DF-RKS iter   4:   -75.72103188465890   -3.28364e-04   5.98200e-04 DIIS
   @DF-RKS iter   5:   -75.72105050869393   -1.86240e-05   1.13595e-04 DIIS
   @DF-RKS iter   6:   -75.72105109986015   -5.91166e-07   9.00374e-06 DIIS
   @DF-RKS iter   7:   -75.72105110353502   -3.67487e-09   1.64169e-06 DIIS
   @DF-RKS iter   8:   -75.72105110367366   -1.38641e-10   5.00948e-08 DIIS
  Energy and wave function converged.


  ==> Post-Iterations <==

   Electrons on quadrature grid:
      Ntotal   =    9.9999999449 ; deviation = -5.510e-08 

    Orbital Energies [Eh]
    ---------------------

    Doubly Occupied:                                                      

       1A1   -18.640572     2A1    -0.473518     3A1     0.022817  
       1B1     0.172354     1B2     0.172354  

    Virtual:                                                              

       4A1     0.379611     5A1     0.963764     6A1     1.316604  
       2B2     1.337549     2B1     1.337549     3B1     1.704891  
       3B2     1.704891     7A1     1.835638     8A1     2.500821  
       1A2     3.098367     9A1     3.098367     4B1     3.392603  
       4B2     3.392603    10A1     4.068425  

    Final Occupation by Irrep:
             A1    A2    B1    B2 
    DOCC [     3,    0,    1,    1 ]

  @DF-RKS Final Energy:   -75.72105110367366

   => Energetics <=

    Nuclear Repulsion Energy =              4.3653749644830295
    One-Electron Energy =                -117.2855357365609166
    Two-Electron Energy =                  44.7127516469853248
    DFT Exchange-Correlation Energy =      -7.5136419785810977
    Empirical Dispersion Energy =           0.0000000000000000
    VV10 Nonlocal Energy =                  0.0000000000000000
    Total Energy =                        -75.7210511036736591

Computation Completed


Properties will be evaluated at   0.000000,   0.000000,   0.000000 [a0]

Properties computed using the SCF density matrix

  Nuclear Dipole Moment: [e a0]
     X:     0.0000      Y:     0.0000      Z:    -0.8550

  Electronic Dipole Moment: [e a0]
     X:     0.0000      Y:     0.0000      Z:     0.5040

  Dipole Moment: [e a0]
     X:     0.0000      Y:     0.0000      Z:    -0.3509     Total:     0.3509

  Dipole Moment: [D]
     X:     0.0000      Y:     0.0000      Z:    -0.8920     Total:     0.8920


*** tstop() called on cortex at Fri Aug 20 21:57:44 2021
Module time:
	user time   =       0.72 seconds =       0.01 minutes
	system time =       0.05 seconds =       0.00 minutes
	total time  =          1 seconds =       0.02 minutes
Total time:
	user time   =       0.72 seconds =       0.01 minutes
	system time =       0.05 seconds =       0.00 minutes
	total time  =          1 seconds =       0.02 minutes
  ==> One Electron Grid Properties (v2.0) <==

  ==> CubicScalarGrid <==

    Filepath     = .
    Total Points =            85731
    XYZ Blocking =               10
    X Points     =               41
    Y Points     =               41
    Z Points     =               51
    X Spacing    =        2.000E-01
    Y Spacing    =        2.000E-01
    Z Spacing    =        2.000E-01
    X Minimum    =       -4.000E+00
    Y Minimum    =       -4.000E+00
    Z Minimum    =       -5.808E+00
    X Maximum    =        4.000E+00
    Y Maximum    =        4.000E+00
    Z Maximum    =        4.192E+00

  Basis Set: CC-PVDZ
    Blend: CC-PVDZ
    Number of shells: 9
    Number of basis functions: 19
    Number of Cartesian functions: 20
    Spherical Harmonics?: true
    Max angular momentum: 2


    Psi4 stopped on: Friday, 20 August 2021 09:57PM
    Psi4 wall time for execution: 0:00:01.35

*** Psi4 exiting successfully. Buy a developer a beer!
